31
Lattice="30.0 0.0 0.0 0.0 30.0 0.0 0.0 0.0 30.0" Properties=species:S:1:pos:R:3:momenta:R:3:forces:R:3 energy=-18817.81206173859 free_energy=-18817.81206173859 config_type=PEG pbc="T T T"
O        8.34028263      -2.53430233      -1.88557383      -0.27478749      -1.02304419      -0.40581307      -0.96604097      -0.61018413      -1.11463189
C        8.48548044      -1.61686957      -0.88458243       0.94821227      -0.24847505       0.00733543       1.95724535       1.09927452       2.65571284
C        7.70144944      -1.88192646       0.44043435      -0.08069789       0.25291922       0.84966754      -0.88563234      -1.39291322      -1.67304051
O        6.31112029      -2.13286259       0.19548684       0.54573770       0.12537537       1.14805226       1.21230638       0.91243249       0.39970034
C        5.88586392      -3.42855659      -0.16990217       0.14808858      -0.08774419       0.03730717       0.58432651       0.31962240      -0.40617955
C        4.80800231      -3.05501478      -1.16011391       0.01603883      -0.95587083       0.05721078      -2.43436503      -1.05246377       1.62857878
O        5.33554450      -2.60350119      -2.31160934      -2.49485068       0.47643502      -1.16939434       0.18847087       0.17554395      -2.99686813
C        5.55930023      -3.57712463      -3.38440793       1.23129428      -0.19947285       0.31660532       1.96746397       0.73911530       2.32227945
C        5.89066151      -2.70037979      -4.57033609       0.02772380       0.02099935      -0.51089692       1.97739100      -0.34761575      -0.25137845
O        7.07457697      -1.92672782      -4.23259725       0.58761796      -0.92339896      -0.21804061      -0.52442217       0.10664047       0.05940575
C        7.02644304      -0.49790357      -4.48345847      -0.11520852       0.71280747       0.76770117       1.52257049      -1.65417397       0.74216598
C        6.09347762       0.15412721      -3.50513677      -1.42355726      -0.11058545       0.28700305      -1.47692740      -0.44577834      -1.60033023
O        6.29731857      -0.22657795      -2.18177039      -0.47056228      -0.28374665       0.08874042      -0.20510532       0.01167990       0.19783103
H        7.84440124      -2.06317474      -2.60035535      -0.06894253      -0.00070124      -0.05345711       0.13711937      -0.83815730       0.05379166
H        8.17896723      -0.65166627      -1.19710568       0.37365063      -0.19519361       0.16405069      -0.50983536       1.24100125      -0.44452360
H        9.60087422      -1.47452890      -0.62985653      -0.23991426       0.10177825       0.16458060      -1.23326707      -0.53119498      -0.09445938
H        7.69198418      -1.02199330       1.08411041      -0.01396233      -0.08810583      -0.06263936       0.45551175       0.54171509       0.43210050
H        8.11577954      -2.75572738       0.93872465       0.11680391      -0.00748002      -0.17423554       0.30314398      -0.14477172       0.37046704
H        5.37832162      -3.87277847       0.67342876      -0.03196074      -0.25172743      -0.09190268       0.18184359      -0.71137553       0.62622976
H        6.76288215      -4.02533773      -0.55583176      -0.22914899      -0.34080474      -0.17325555      -1.07372808       0.25532687       0.13805924
H        4.27297177      -2.20745372      -0.65800447      -0.15820220       0.02332455       0.01159516       0.28505811      -0.68869025      -0.50605041
H        4.01372846      -3.82808452      -1.38184229       0.11265973      -0.07988809      -0.04981099       0.77495283       0.24961171       0.41862595
H        4.68741585      -4.23412382      -3.45256827      -0.09679831       0.00090091       0.14406442       0.11551594       0.02049896      -0.31466514
H        6.48642220      -4.10358292      -2.96125822       0.14992940       0.24607947       0.04704126      -1.17350709       0.02789442      -1.21830976
H        5.09006060      -2.02263591      -4.74784819       0.19403840      -0.01107273       0.04238161      -0.96065587       0.49956468      -0.44565749
H        6.18327943      -3.25276079      -5.48917849       0.07761624      -0.11736637       0.22223802      -0.60311234       0.03775765       0.40268865
H        6.79914567      -0.32167863      -5.52791054       0.10145143      -0.14069242       0.18021278      -0.42433444       0.25634623      -0.40257996
H        8.06245785      -0.18006265      -4.31797626      -0.04714082       0.14190617       0.14225045       0.00375248       0.11109456      -0.02767720
H        5.08926048      -0.09030329      -3.99382584       0.15247723       0.07918999      -0.16746327       0.40971422       0.45343301       1.48970973
H        6.24152262       1.21798492      -3.60292206      -0.13261349       0.09226303      -0.10633068      -0.11555398       0.66245216       0.17798522
H        5.85951584      -1.09918050      -1.98349857       0.06491735      -0.15623067       0.21634021       0.51010036       0.69631380      -0.61897975
