31
Lattice="30.0 0.0 0.0 0.0 30.0 0.0 0.0 0.0 30.0" Properties=species:S:1:pos:R:3:momenta:R:3:forces:R:3 energy=-18816.838255334267 free_energy=-18816.838255334267 config_type=PEG pbc="T T T"
O        6.67669303      -3.40258831       1.64784064      -1.78081124      -0.06895356      -1.84809468      -0.23294784       1.04561508       1.36622655
C        5.95560376      -3.28353584       0.44831312       0.21590062      -0.42131104      -0.69790338      -0.45888296      -0.73785919      -0.24033184
C        6.82423032      -2.62766801      -0.61836701       0.59151965      -1.04531803       0.09118276      -1.19561815      -0.65185803       0.17042880
O        6.90840012      -1.29638321      -0.18863946      -0.25776230       0.08234068       0.61346343      -1.13594925      -0.40691578      -0.02253824
C        8.14714299      -0.74947344      -0.31294275       1.02444958       0.54512140      -0.33117791       1.70183706       0.69819295       1.37114763
C        8.09683209       0.41709123      -1.18249925       0.55864208      -0.13524172       0.23120136      -0.78822625       2.27554154      -0.24221104
O        7.79286342       0.07882809      -2.49825968       1.06909120       0.57236625      -0.11978460      -0.56681508      -0.50759512      -0.69965363
C        7.90609988       0.97775704      -3.59081885      -0.73404981      -0.09095081       0.44079460       1.64382589       1.46265864       1.13346863
C        9.20357199       0.71330998      -4.39431136       0.34200795      -1.67428004       0.89535641       0.12117743       1.58038831       1.10491562
O        9.19966786      -0.34877909      -5.26779147       0.80865873       1.08203635      -1.23719898      -0.85858423      -0.18604898      -0.71173948
C        9.76044964      -1.60330483      -4.95701229      -0.78914469      -0.59374671       0.56367254       0.64337111       0.37276503      -0.82095456
C        9.51952431      -2.13553236      -3.56409793      -0.78297110       0.95205514       0.90697501       5.09909821      -0.49699101       1.17523587
O        8.27252039      -2.34235178      -3.21716384      -0.74643058       0.86784108       0.81853282      -3.91555023      -1.04179764       0.72553021
H        6.36012672      -2.70244563       2.26932049      -0.01882202      -0.07917250      -0.33517185       0.57332867      -0.73285949      -0.83418524
H        5.00003293      -2.72460481       0.61624970      -0.08485150      -0.30063144       0.01582471       0.60649270      -0.44173333      -0.46552813
H        5.78358448      -4.32523258       0.15895693       0.12281282       0.24021618       0.10449583      -0.52440822       0.07744122      -0.26231641
H        6.42522707      -2.79034576      -1.67650651      -0.27414509      -0.32512796       0.25807478       0.28238815       0.63694370       1.23491740
H        7.80677056      -3.10318526      -0.56216745       0.25987250       0.36548610      -0.12377045       0.17146091      -0.03590303      -0.10626060
H        8.79953162      -1.49073957      -0.75527114       0.25605549       0.16349428       0.02298777       0.75789040      -0.10804296       0.11001925
H        8.59888377      -0.29870788       0.66458685      -0.16071204      -0.02621749      -0.30916807      -0.82778704      -1.38001597      -0.94125974
H        9.08887075       0.85946329      -1.13374318      -0.04356373      -0.16713456       0.11957012       0.24232526       0.85961473      -0.02495671
H        7.26304051       1.06166571      -0.77471228      -0.03085854      -0.26743187      -0.11219726       1.02871907      -0.05343315      -0.29609960
H        8.01619403       2.11538520      -3.29618529       0.16084922       0.34789560       0.20479483      -0.53078115      -2.07399154       0.03962058
H        6.99827263       0.83597262      -4.13781442       0.23904155       0.06351636       0.53471255      -0.52529204       0.11507495      -0.85511267
H       10.04035749       0.65037311      -3.64412404       0.00658775      -0.40329961       0.10090170      -0.40103331       0.07800830      -0.49468869
H        9.31559034       1.69291758      -4.94168155      -0.19503266      -0.16546270       0.02283518       0.34596857      -1.17124081      -0.13135296
H       10.83813433      -1.56771349      -5.24112403       0.34162040       0.07980237       0.04547937      -0.27705920      -0.21033169       0.63400847
H        9.29853182      -2.28263272      -5.68320251      -0.14953437       0.18542178      -0.09747070      -0.09541409       0.01750022       0.11033071
H       10.23287241      -1.65795128      -2.75844308       0.32155954       0.36988836      -0.21319131      -1.43228400       0.24763925      -1.19126236
H        9.90087876      -3.15024996      -3.45189579      -0.11578715       0.14161885      -0.10793317       1.05123985      -0.38841110      -1.05348372
H        7.87767694      -1.51522642      -2.95381882      -0.55041251      -0.01837011       0.28594525      -0.50249112       1.15764499       0.21808578
