31
Lattice="30.0 0.0 0.0 0.0 30.0 0.0 0.0 0.0 30.0" Properties=species:S:1:pos:R:3:momenta:R:3:forces:R:3 energy=-18813.587442921445 free_energy=-18813.587442921445 config_type=PEG pbc="T T T"
O        7.29083060      -3.59561057      -0.10918364       1.34491346      -1.55180200       1.78651803      -0.08871600       1.46529686       1.24861777
C        6.02472613      -2.94969471       0.30048919       0.48055718      -0.38662299       1.55475153       0.81179583      -1.77371550       1.99557960
C        6.02726747      -1.47433915      -0.06744694       0.62143949      -2.73859656       0.61499787      -2.90230393      -1.25338912      -0.72217476
O        7.03374481      -0.81057080       0.57338450       2.20741592      -0.49371932       1.83093801       1.12829006       2.02118278      -2.48351884
C        7.89273386      -0.14151836      -0.53497444      -0.54594490       0.33522026      -0.31113847      -0.12127937       0.41603094       1.25499547
C        7.38592471       0.84697343      -1.67526582      -1.35487081      -0.05131638       0.34504910       2.85725379      -1.18783581      -0.69744927
O        8.62028064       1.10780407      -2.66680066       2.15407215       0.85369153      -1.56318985      -2.94941473       0.73324937       3.64269304
C        8.10050727       1.84826434      -3.74569597       1.60152547      -1.73231165      -1.69865875       0.25702575      -0.72982419       0.64784259
C        8.53136842       1.48131771      -5.20771682      -1.95225581      -0.54326055       0.20188085      -2.98308420       1.54070807      -0.97362351
O        8.30727758       0.28659852      -6.00905808       0.30165007       1.87687347      -1.98145327       0.32836694      -1.62413263       3.72599506
C        8.97109971      -0.84485357      -5.30394154      -0.33694468       0.95488004       1.17088453       4.17474842       1.20374370       0.44354784
C        8.93095937      -1.18596073      -3.75432145      -1.97806628       3.41499922       3.48237702      -0.93282223      -3.63451338      -2.33197379
O        7.63721135      -1.92395605      -3.40619375      -0.96865146       1.11613818       1.13891214       3.89134145       0.08569926       0.35410568
H        8.04706441      -3.15280133       0.41639466      -0.01658382       0.06895177       0.00673512      -2.05821943      -0.74514300      -1.02434659
H        5.86053194      -3.16559195       1.44893621      -0.21362722      -0.21883912       0.04386188       0.48868781       0.94950551      -1.84646499
H        5.15959427      -3.51258135      -0.12578359      -0.05305184      -0.00685157      -0.68279621       0.87741435       0.39031786      -0.45481095
H        4.94726297      -1.06632307       0.05017903      -0.14515298      -0.16540771       0.22098739       1.70611084      -0.10562066       0.36526603
H        6.20924358      -1.40570695      -1.14128819      -0.30996911       0.01541119       0.04548337      -0.16189000      -0.46452105      -0.28469390
H        8.39260576      -0.90969720      -1.14174242       0.02701886       0.37493058      -0.21019932      -0.04175834      -0.12660964       0.82112128
H        8.51051044       0.33630691       0.22271752      -0.21598192       0.28094834      -0.08729281       0.85221845       0.40959647      -0.93183911
H        7.03685270       1.81828299      -1.42547212      -0.14690488      -0.16143679       0.37411269      -0.36314964       0.84423578       0.81200618
H        6.69771780       0.37813622      -2.35912645       0.33966365      -0.34833628      -0.30701955      -0.54479009      -0.41607153       0.16543949
H        8.39770832       2.88880119      -3.56461408       0.14149298       0.19037312      -0.04551922       0.33518362       0.16190884      -0.61187840
H        7.00744258       1.87422970      -3.57653745      -0.07041318      -0.91755434      -0.27716001       0.16428308      -0.25975329      -1.02786911
H        9.49729752       1.88349165      -5.43656596      -0.12567322      -0.06187410       0.11812042       0.97882771       0.19329160       0.10555595
H        7.75488181       2.21902860      -5.57855713       0.30570544       0.24796064       0.14404598       1.11420441      -0.65960270      -1.01247334
H       10.13116610      -0.55066812      -5.30751346      -0.28388934       0.06539306      -0.01631622      -1.85661614      -0.13740543      -0.25187004
H        9.11044331      -1.83557362      -5.82561943       0.08816172       0.03846494       0.12365893      -1.57516634       1.05171227      -0.24925044
H        9.17343867      -0.33966884      -3.08230791      -0.67281751       0.92651395      -0.16779044      -0.27966899      -1.49341500      -0.93888050
H        9.72385138      -2.05030098      -3.80618259      -0.04792970       0.37479282       0.62062113      -1.41986477       1.61335766       0.81806612
H        6.98867922      -1.29175409      -3.60500132      -0.23970887      -0.49500747       0.02804903      -1.68700850       1.53171611      -0.55771428
